# vtk DataFile Version 5.1
vtk output
ASCII
DATASET POLYDATA
POINTS 75 float
24.2158 3.07139 -15.7312 40.4968 -19.2909 -12.7995 14.7879 2.30524 -12.8197 
14.2734 1.47259 -11.4568 14.8597 -12.5411 -3.37376 14.5431 -12.6162 -2.65247 
15.5026 -14.2246 -1.01685 57.1258 -22.1506 0.110394 14.3884 12.3965 4.55318 
24.6003 -1.67571 5.0863 23.5761 7.89427 4.60869 34.3981 37.8601 6.06432 
18.3297 -50.6516 4.95879 21.412 -43.2066 4.86735 24.2539 2.73834 6.13701 
13.0942 -51.7038 6.21402 14.0652 -51.8886 6.08055 15.97 -52.0306 5.81164 
30.8179 -45.2443 7.81814 11.2737 -51.6077 6.70953 11.9059 -51.8075 6.36748 
16.8528 -52.2037 7.84438 30.2138 -44.5613 8.89919 25.0089 -42.6375 10.0672 
30.3109 9.19819 10.8468 29.4064 10.5478 10.327 30.4699 6.80668 12.6395 
10.5229 -36.5396 14.3012 28.8784 7.57028 13.749 28.0384 10.9752 13.2737 
9.9632 -38.7898 14.2631 10.4763 -36.5427 14.3689 27.898 11.1026 14.1088 
0.682243 12.4734 16.3653 0.576923 29.8837 16.4142 21.6693 -6.65142 17.5094 
28.4896 6.64736 17.7171 12.3488 -25.6017 18.0515 11.8211 -25.3671 18.2703 
13.9575 -25.7684 17.7007 14.6739 -25.9883 17.5568 11.1137 -24.8855 18.4906 
7.38718 -22.8879 20.5325 7.66959 -21.9453 20.4337 10.2469 -24.3059 19.4082 
28.2862 1.19058 20.5367 28.2583 1.98233 20.2668 9.08847 -23.2863 20.6853 
0.507019 1.37665 22.1282 20.2054 18.0139 21.5391 5.17195 -17.7051 22.7434 
4.60785 -16.2199 23.3086 24.4402 -4.96735 21.0665 4.20042 -15.9659 23.5806 
0.11472 -4.3539 26.5208 11.1234 -38.8764 26.9756 11.2577 -38.4124 27.5301 
6.06038 -5.16334 25.7247 7.45286 -4.99311 25.6345 10.614 -5.41702 27.336 
0.569085 18.3917 28.0331 11.1481 -38.0274 27.8884 10.9441 -37.4573 28.0844 
10.7938 -36.658 28.5888 10.8125 -36.5132 29.4265 10.8607 -35.8479 29.58 
11.0899 -35.6161 30.4408 10.6886 -34.1048 30.4513 0.450842 12.4296 30.3599 
10.7995 -33.101 31.7323 0.316286 8.5226 31.6821 10.8848 -32.5151 32.6684 
8.11708 -5.0968 34.0917 -0.887047 5.33201 34.8438 0.130386 -1.56066 37.6349 

POINT_DATA 75
COLOR_SCALARS Colors 3
1 0 0 1 0 0 1 0 0 
1 0 0 1 0 0 
1 0 0 1 0 0 
1 0 0 1 0 0 
1 0 0 1 0 0 
1 0 0 1 0 0 
1 0 0 1 0 0 
1 0 0 1 0 0 
1 0 0 1 0 0 
1 0 0 1 0 0 
1 0 0 1 0 0 
1 0 0 1 0 0 
1 0 0 1 0 0 
1 0 0 1 0 0 
1 0 0 1 0 0 
1 0 0 1 0 0 
1 0 0 1 0 0 
1 0 0 1 0 0 
1 0 0 1 0 0 
1 0 0 1 0 0 
1 0 0 1 0 0 
1 0 0 1 0 0 
1 0 0 1 0 0 
1 0 0 1 0 0 
1 0 0 1 0 0 
1 0 0 1 0 0 
1 0 0 1 0 0 
1 0 0 1 0 0 
1 0 0 1 0 0 
1 0 0 1 0 0 
1 0 0 1 0 0 
1 0 0 1 0 0 
1 0 0 1 0 0 
1 0 0 1 0 0 
1 0 0 1 0 0 
1 0 0 1 0 0 
1 0 0 1 0 0 

