# vtk DataFile Version 5.1
vtk output
ASCII
DATASET POLYDATA
POINTS 68 float
-26.0935 12.8013 -36.1008 -30.2875 11.4981 -34.9998 -28.8244 12.235 -35.6872 
-25.1538 13.3076 -34.7102 -28.4086 13.9855 -33.5225 -28.1693 14.3452 -32.9606 
-31.6257 12.965 -31.7372 -50.1121 -8.53747 -30.5858 -46.4548 24.6948 -30.9239 
-51.4342 -11.0348 -29.4667 -7.40638 -68.5827 -27.1971 -63.4344 -26.9038 -26.5399 
-63.6222 -26.9315 -26.3136 -63.0533 -26.989 -26.4706 -63.2464 -26.571 -26.1667 
-36.2264 0.719333 -22.7832 -31.3048 5.37033 -22.4474 -16.8447 -7.48013 -20.7929 
-32.349 1.29328 -21.4847 -17.4986 -7.98369 -19.7725 -31.9441 5.53767 -16.8815 
-30.4679 12.2495 -14.0695 -38.371 -44.1 -13.7774 -23.2162 -22.8003 -13.5348 
-34.9509 4.71908 -14.0635 -24.5613 -44.0284 -12.8126 -22.634 -23.0933 -12.9463 
-32.2639 -5.84852 -12.6347 -34.8248 3.18328 -11.7801 -34.8326 3.51973 -12.6439 
-30.3824 -42.2238 -12.6532 -34.1999 6.61867 -10.098 -34.1318 7.32875 -10.0099 
-33.9653 8.17663 -9.90971 -1.38978 12.4248 -9.8373 -33.2464 13.0304 -9.14395 
0.275225 33.5204 -8.54698 0.94053 32.0688 -8.23888 -33.3721 11.8335 -7.50288 
-0.0210313 36.0684 -7.04604 0.122615 38.7093 -5.87897 -24.5692 -23.7761 -5.23901 
-4.52986 9.59412 -2.4673 0.336106 12.2501 -2.16448 0.346374 13.9949 -2.25408 
-0.193617 9.60537 -0.944982 -11.8771 -31.0154 0.304496 -0.916883 -17.3168 1.46424 
-1.75776 4.9987 2.72991 -0.350818 7.9358 1.59926 0.552433 -25.6416 3.0717 
-1.4808 4.54375 3.09442 -10.5606 -30.2291 4.36281 -10.2626 -29.861 4.95724 
0.887294 -25.0464 5.30844 -0.88416 33.2501 4.83571 1.17712 -26.4514 6.95753 
0.998717 -22.8505 7.10423 -10.3142 -27.3464 9.56948 -9.77472 -24.8721 10.9024 
-9.84852 -24.2389 11.4014 0.239831 -5.8598 12.5826 -8.87675 -20.9823 12.8622 
-8.90994 -19.4465 13.4549 -8.3244 -10.357 16.5953 -7.23628 -5.05381 16.0433 
-6.97721 -4.61812 16.043 -6.56578 -4.26286 15.8593 
POINT_DATA 68
COLOR_SCALARS Colors 3
1 0 0 1 0 0 1 0 0 
1 0 0 1 0 0 
1 0 0 1 0 0 
1 0 0 1 0 0 
1 0 0 1 0 0 
1 0 0 1 0 0 
1 0 0 1 0 0 
1 0 0 1 0 0 
1 0 0 1 0 0 
1 0 0 1 0 0 
1 0 0 1 0 0 
1 0 0 1 0 0 
1 0 0 1 0 0 
1 0 0 1 0 0 
1 0 0 1 0 0 
1 0 0 1 0 0 
1 0 0 1 0 0 
1 0 0 1 0 0 
1 0 0 1 0 0 
1 0 0 1 0 0 
1 0 0 1 0 0 
1 0 0 1 0 0 
1 0 0 1 0 0 
1 0 0 1 0 0 
1 0 0 1 0 0 
1 0 0 1 0 0 
1 0 0 1 0 0 
1 0 0 1 0 0 
1 0 0 1 0 0 
1 0 0 1 0 0 
1 0 0 1 0 0 
1 0 0 1 0 0 
1 0 0 1 0 0 
1 0 0 
