# vtk DataFile Version 5.1
vtk output
ASCII
DATASET POLYDATA
POINTS 71 float
29.0578 18.9496 -47.7669 18.8597 8.15048 -29.0136 43.5332 -24.6962 -27.3534 
18.8419 8.08479 -28.899 33.6456 10.9734 -27.8808 56.9947 -32.2056 -25.3269 
33.3767 7.97879 -25.702 32.8914 9.75765 -26.7307 8.96349 24.2724 -25.7846 
57.0009 -31.6767 -24.3252 30.1615 7.00368 -22.2286 52.2422 -20.1843 -20.8292 
52.4312 -18.3811 -20.7195 52.7471 -16.7654 -21.0996 16.2776 -7.35309 -20.4327 
15.9176 -7.07693 -20.3713 34.6238 -39.1741 -19.1221 24.9645 8.51735 -19.0115 
14.983 -7.50025 -17.6934 27.1294 12.7892 -12.2654 14.9143 26.0087 -11.6606 
15.8134 12.569 -10.7248 15.3378 -42.9734 -9.98104 26.9811 -42.731 -11.2734 
25.9736 -42.0996 -9.34667 33.2092 1.20344 -9.70004 34.326 7.14042 -7.92712 
21.7101 -60.2051 -8.30958 33.9597 8.09856 -7.09472 33.2895 10.4262 -6.75423 
5.7295 40.3597 -6.84338 32.1729 1.91499 -5.30661 17.1705 38.971 -5.70568 
0.668654 25.2224 -4.96982 13.3963 -28.7825 -0.992099 -0.557323 -18.1235 -0.60402 
0.856085 -17.8675 -0.898987 0.188909 10.5801 -0.944987 0.512167 13.8942 -1.16584 
0.609128 16.831 -1.6861 19.9058 -18.9572 -0.143205 0.553727 13.576 -0.227089 
30.1645 -27.8267 1.31663 29.9557 -26.274 0.880333 29.4018 -24.8239 1.10507 
29.2315 -24.0762 0.907151 26.4597 -5.09475 1.68571 26.5623 -4.30279 1.63112 
3.50681 5.85085 2.85589 0.30295 11.2827 2.43245 0.47368 23.6239 3.64094 
1.31945 1.5284 5.64614 0.119988 19.319 5.02989 2.3819 -0.387135 5.80403 
-0.542993 22.2379 5.77548 0.754827 30.1179 6.8999 2.44612 -6.24825 7.27717 
0.185473 -2.60417 9.15686 0.382162 -1.3117 8.54794 0.177396 -0.252016 8.77854 
-0.436057 15.3042 7.60128 -0.688528 16.7407 7.36083 9.63061 -23.3274 12.8281 
9.60029 -22.5761 12.8623 9.60706 -22.096 13.4457 9.63717 -20.2873 13.9982 
9.90605 -15.2153 15.17 9.38668 -13.232 15.2138 8.58727 -11.3776 14.8775 
8.95666 -12.0542 15.1129 15.563 -1.93747 15.3373 
POINT_DATA 71
COLOR_SCALARS Colors 3
1 0 0 1 0 0 1 0 0 
1 0 0 1 0 0 
1 0 0 1 0 0 
1 0 0 1 0 0 
1 0 0 1 0 0 
1 0 0 1 0 0 
1 0 0 1 0 0 
1 0 0 1 0 0 
1 0 0 1 0 0 
1 0 0 1 0 0 
1 0 0 1 0 0 
1 0 0 1 0 0 
1 0 0 1 0 0 
1 0 0 1 0 0 
1 0 0 1 0 0 
1 0 0 1 0 0 
1 0 0 1 0 0 
1 0 0 1 0 0 
1 0 0 1 0 0 
1 0 0 1 0 0 
1 0 0 1 0 0 
1 0 0 1 0 0 
1 0 0 1 0 0 
1 0 0 1 0 0 
1 0 0 1 0 0 
1 0 0 1 0 0 
1 0 0 1 0 0 
1 0 0 1 0 0 
1 0 0 1 0 0 
1 0 0 1 0 0 
1 0 0 1 0 0 
1 0 0 1 0 0 
1 0 0 1 0 0 
1 0 0 1 0 0 
1 0 0 1 0 0 

