# vtk DataFile Version 5.1
vtk output
ASCII
DATASET POLYDATA
POINTS 19 float
0.163645 6.97826 7.52843 -10.4949 -27.1429 15.6556 0.794869 18.6225 15.3689 
1.03015 18.9805 15.3915 1.1144 20.5192 15.5655 0.94989 24.0963 16.6462 
1.01625 24.3114 18.3413 0.687509 25.5113 19.2394 -4.31843 -22.2099 20.1212 
-4.48122 -21.3 20.3368 1.55868 31.7299 22.0186 -1.99582 -8.14062 23.0951 
0.952707 21.9495 29.1738 0.579434 14.8996 32.425 1.23308 -3.163 37.8952 
0.362271 2.70216 38.9564 -0.143122 4.9995 38.5585 -0.228689 6.02171 38.4361 
1.05212 -3.63486 39.1743 
POINT_DATA 19
COLOR_SCALARS Colors 3
1 0 0 1 0 0 1 0 0 
1 0 0 1 0 0 
1 0 0 1 0 0 
1 0 0 1 0 0 
1 0 0 1 0 0 
1 0 0 1 0 0 
1 0 0 1 0 0 
1 0 0 1 0 0 
1 0 0 1 0 0 

