# vtk DataFile Version 5.1
vtk output
ASCII
DATASET POLYDATA
POINTS 33 float
-27.9491 15.5603 -19.7494 -18.7207 3.22722 -16.1545 -16.1311 -70.0014 -11.0914 
-14.3495 -83.5149 -8.85824 -49.7666 -9.86917 -7.94627 -6.40154 -80.5316 -5.57708 
-3.60608 -70.2184 -6.13697 -15.0255 -13.971 -2.37492 -15.0398 -13.7283 -1.27207 
-29.8839 -26.9724 4.70825 -15.5682 20.8029 4.11152 0.163645 6.97826 7.52843 
-10.4949 -27.1429 15.6556 0.794869 18.6225 15.3689 1.03015 18.9805 15.3915 
1.1144 20.5192 15.5655 -21.6729 22.8968 15.9728 0.94989 24.0963 16.6462 
1.01625 24.3114 18.3413 0.687509 25.5113 19.2394 -4.31843 -22.2099 20.1212 
-4.48122 -21.3 20.3368 -3.45385 0.211671 20.6925 1.55868 31.7299 22.0186 
-1.99582 -8.14062 23.0951 0.952707 21.9495 29.1738 0.579434 14.8996 32.425 
1.23308 -3.163 37.8952 0.980146 0.900188 38.3246 0.362271 2.70216 38.9564 
-0.143122 4.9995 38.5585 -0.228689 6.02171 38.4361 1.05212 -3.63486 39.1743 

POINT_DATA 33
COLOR_SCALARS Colors 3
1 0 0 1 0 0 1 0 0 
1 0 0 1 0 0 
1 0 0 1 0 0 
1 0 0 1 0 0 
1 0 0 1 0 0 
1 0 0 1 0 0 
1 0 0 1 0 0 
1 0 0 1 0 0 
1 0 0 1 0 0 
1 0 0 1 0 0 
1 0 0 1 0 0 
1 0 0 1 0 0 
1 0 0 1 0 0 
1 0 0 1 0 0 
1 0 0 1 0 0 
1 0 0 1 0 0 

