# vtk DataFile Version 5.1
vtk output
ASCII
DATASET POLYDATA
POINTS 60 float
-27.9491 15.5603 -19.7494 -18.7207 3.22722 -16.1545 -18.6615 1.62564 -15.0556 
-16.1311 -70.0014 -11.0914 -14.3495 -83.5149 -8.85824 -49.7666 -9.86917 -7.94627 
-4.11352 -78.176 -7.72454 -6.40154 -80.5316 -5.57708 -3.60608 -70.2184 -6.13697 
-2.77924 -68.1008 -1.80915 -15.0255 -13.971 -2.37492 -15.0398 -13.7283 -1.27207 
-18.0546 -49.9194 0.497746 -17.8554 -49.4405 0.880345 -29.8839 -26.9724 4.70825 
-25.9204 3.41306 5.07161 -15.5682 20.8029 4.11152 -8.39112 -70.8396 5.2844 
-8.57651 -70.1626 5.7968 -8.74284 -69.4059 6.80414 -15.7306 -0.0741325 7.61723 
0.163645 6.97826 7.52843 -32.471 11.3503 7.98638 -32.5926 12.0361 7.94737 
-28.1427 -13.7643 8.45695 -30.8421 0.85544 10.7158 -29.0252 9.06741 10.0304 
-28.2845 -4.28855 13.8719 -10.4949 -27.1429 15.6556 -27.9387 -7.39455 14.9636 
0.794869 18.6225 15.3689 1.03015 18.9805 15.3915 1.1144 20.5192 15.5655 
-21.6729 22.8968 15.9728 -25.2621 56.7493 15.9084 0.94989 24.0963 16.6462 
1.01625 24.3114 18.3413 0.687509 25.5113 19.2394 -11.9644 -25.2277 18.3566 
-4.31843 -22.2099 20.1212 -4.48122 -21.3 20.3368 -3.45385 0.211671 20.6925 
1.55868 31.7299 22.0186 -1.99582 -8.14062 23.0951 -10.4559 -39.2331 27.0417 
-11.3276 -38.2103 28.2025 -11.1212 -37.8048 28.5103 0.952707 21.9495 29.1738 
-11.2232 -35.3653 30.3969 -10.339 -33.6149 30.9769 0.579434 14.8996 32.425 
-8.84815 -30.8129 31.674 -8.11886 -29.1647 32.1935 -8.83756 -26.7568 34.147 
1.23308 -3.163 37.8952 0.980146 0.900188 38.3246 0.362271 2.70216 38.9564 
-0.143122 4.9995 38.5585 -0.228689 6.02171 38.4361 1.05212 -3.63486 39.1743 

POINT_DATA 60
COLOR_SCALARS Colors 3
1 0 0 1 0 0 1 0 0 
1 0 0 1 0 0 
1 0 0 1 0 0 
1 0 0 1 0 0 
1 0 0 1 0 0 
1 0 0 1 0 0 
1 0 0 1 0 0 
1 0 0 1 0 0 
1 0 0 1 0 0 
1 0 0 1 0 0 
1 0 0 1 0 0 
1 0 0 1 0 0 
1 0 0 1 0 0 
1 0 0 1 0 0 
1 0 0 1 0 0 
1 0 0 1 0 0 
1 0 0 1 0 0 
1 0 0 1 0 0 
1 0 0 1 0 0 
1 0 0 1 0 0 
1 0 0 1 0 0 
1 0 0 1 0 0 
1 0 0 1 0 0 
1 0 0 1 0 0 
1 0 0 1 0 0 
1 0 0 1 0 0 
1 0 0 1 0 0 
1 0 0 1 0 0 
1 0 0 1 0 0 
1 0 0 
